 variables=x,y,T
 zone i=          101  j=          101
   0.00000000       0.00000000       50.0000000    
   9.99999978E-03   0.00000000       50.0000000    
   1.99999996E-02   0.00000000       50.0000000    
   2.99999993E-02   0.00000000       50.0000000    
   3.99999991E-02   0.00000000       50.0000000    
   4.99999970E-02   0.00000000       50.0000000    
   5.99999987E-02   0.00000000       50.0000000    
   7.00000003E-02   0.00000000       50.0000000    
   7.99999982E-02   0.00000000       50.0000000    
   8.99999961E-02   0.00000000       50.0000000    
   9.99999940E-02   0.00000000       50.0000000    
  0.109999999       0.00000000       50.0000000    
  0.119999997       0.00000000       50.0000000    
  0.129999995       0.00000000       50.0000000    
  0.140000001       0.00000000       50.0000000    
  0.149999991       0.00000000       50.0000000    
  0.159999996       0.00000000       50.0000000    
  0.170000002       0.00000000       50.0000000    
  0.179999992       0.00000000       50.0000000    
  0.189999998       0.00000000       50.0000000    
  0.199999988       0.00000000       50.0000000    
  0.209999993       0.00000000       50.0000000    
  0.219999999       0.00000000       50.0000000    
  0.229999989       0.00000000       50.0000000    
  0.239999995       0.00000000       50.0000000    
  0.250000000       0.00000000       50.0000000    
  0.259999990       0.00000000       50.0000000    
  0.269999981       0.00000000       50.0000000    
  0.280000001       0.00000000       50.0000000    
  0.289999992       0.00000000       50.0000000    
  0.299999982       0.00000000       50.0000000    
  0.310000002       0.00000000       50.0000000    
  0.319999993       0.00000000       50.0000000    
  0.329999983       0.00000000       50.0000000    
  0.340000004       0.00000000       50.0000000    
  0.349999994       0.00000000       50.0000000    
  0.359999985       0.00000000       50.0000000    
  0.370000005       0.00000000       50.0000000    
  0.379999995       0.00000000       50.0000000    
  0.389999986       0.00000000       50.0000000    
  0.399999976       0.00000000       50.0000000    
  0.409999996       0.00000000       50.0000000    
  0.419999987       0.00000000       50.0000000    
  0.429999977       0.00000000       50.0000000    
  0.439999998       0.00000000       50.0000000    
  0.449999988       0.00000000       50.0000000    
  0.459999979       0.00000000       50.0000000    
  0.469999999       0.00000000       50.0000000    
  0.479999989       0.00000000       50.0000000    
  0.489999980       0.00000000       50.0000000    
  0.500000000       0.00000000       50.0000000    
  0.509999990       0.00000000       50.0000000    
  0.519999981       0.00000000       50.0000000    
  0.529999971       0.00000000       50.0000000    
  0.539999962       0.00000000       50.0000000    
  0.550000012       0.00000000       50.0000000    
  0.560000002       0.00000000       50.0000000    
  0.569999993       0.00000000       50.0000000    
  0.579999983       0.00000000       50.0000000    
  0.589999974       0.00000000       50.0000000    
  0.599999964       0.00000000       50.0000000    
  0.610000014       0.00000000       50.0000000    
  0.620000005       0.00000000       50.0000000    
  0.629999995       0.00000000       50.0000000    
  0.639999986       0.00000000       50.0000000    
  0.649999976       0.00000000       50.0000000    
  0.659999967       0.00000000       50.0000000    
  0.669999957       0.00000000       50.0000000    
  0.680000007       0.00000000       50.0000000    
  0.689999998       0.00000000       50.0000000    
  0.699999988       0.00000000       50.0000000    
  0.709999979       0.00000000       50.0000000    
  0.719999969       0.00000000       50.0000000    
  0.729999959       0.00000000       50.0000000    
  0.740000010       0.00000000       50.0000000    
  0.750000000       0.00000000       50.0000000    
  0.759999990       0.00000000       50.0000000    
  0.769999981       0.00000000       50.0000000    
  0.779999971       0.00000000       50.0000000    
  0.789999962       0.00000000       50.0000000    
  0.799999952       0.00000000       50.0000000    
  0.810000002       0.00000000       50.0000000    
  0.819999993       0.00000000       50.0000000    
  0.829999983       0.00000000       50.0000000    
  0.839999974       0.00000000       50.0000000    
  0.849999964       0.00000000       50.0000000    
  0.859999955       0.00000000       50.0000000    
  0.870000005       0.00000000       50.0000000    
  0.879999995       0.00000000       50.0000000    
  0.889999986       0.00000000       50.0000000    
  0.899999976       0.00000000       50.0000000    
  0.909999967       0.00000000       50.0000000    
  0.919999957       0.00000000       50.0000000    
  0.930000007       0.00000000       50.0000000    
  0.939999998       0.00000000       50.0000000    
  0.949999988       0.00000000       50.0000000    
  0.959999979       0.00000000       50.0000000    
  0.969999969       0.00000000       50.0000000    
  0.979999959       0.00000000       50.0000000    
  0.989999950       0.00000000       50.0000000    
   1.00000000       0.00000000       50.0000000    
   0.00000000       9.99999978E-03   75.0000000    
   9.99999978E-03   9.99999978E-03   62.5300827    
   1.99999996E-02   9.99999978E-03   57.6188278    
   2.99999993E-02   9.99999978E-03   55.3248978    
   3.99999991E-02   9.99999978E-03   54.0825157    
   4.99999970E-02   9.99999978E-03   53.3281593    
   5.99999987E-02   9.99999978E-03   52.8305321    
   7.00000003E-02   9.99999978E-03   52.4822769    
   7.99999982E-02   9.99999978E-03   52.2279892    
   8.99999961E-02   9.99999978E-03   52.0364685    
   9.99999940E-02   9.99999978E-03   51.8888855    
  0.109999999       9.99999978E-03   51.7732086    
  0.119999997       9.99999978E-03   51.6814041    
  0.129999995       9.99999978E-03   51.6079025    
  0.140000001       9.99999978E-03   51.5487137    
  0.149999991       9.99999978E-03   51.5009079    
  0.159999996       9.99999978E-03   51.4622803    
  0.170000002       9.99999978E-03   51.4311485    
  0.179999992       9.99999978E-03   51.4061966    
  0.189999998       9.99999978E-03   51.3863869    
  0.199999988       9.99999978E-03   51.3708801    
  0.209999993       9.99999978E-03   51.3589935    
  0.219999999       9.99999978E-03   51.3501816    
  0.229999989       9.99999978E-03   51.3439751    
  0.239999995       9.99999978E-03   51.3399925    
  0.250000000       9.99999978E-03   51.3379097    
  0.259999990       9.99999978E-03   51.3374481    
  0.269999981       9.99999978E-03   51.3383713    
  0.280000001       9.99999978E-03   51.3404846    
  0.289999992       9.99999978E-03   51.3436127    
  0.299999982       9.99999978E-03   51.3476028    
  0.310000002       9.99999978E-03   51.3523254    
  0.319999993       9.99999978E-03   51.3576660    
  0.329999983       9.99999978E-03   51.3635254    
  0.340000004       9.99999978E-03   51.3698120    
  0.349999994       9.99999978E-03   51.3764572    
  0.359999985       9.99999978E-03   51.3833923    
  0.370000005       9.99999978E-03   51.3905602    
  0.379999995       9.99999978E-03   51.3979111    
  0.389999986       9.99999978E-03   51.4054031    
  0.399999976       9.99999978E-03   51.4129944    
  0.409999996       9.99999978E-03   51.4206619    
  0.419999987       9.99999978E-03   51.4283752    
  0.429999977       9.99999978E-03   51.4361153    
  0.439999998       9.99999978E-03   51.4438629    
  0.449999988       9.99999978E-03   51.4516144    
  0.459999979       9.99999978E-03   51.4593582    
  0.469999999       9.99999978E-03   51.4670906    
  0.479999989       9.99999978E-03   51.4748154    
  0.489999980       9.99999978E-03   51.4825363    
  0.500000000       9.99999978E-03   51.4902649    
  0.509999990       9.99999978E-03   51.4980164    
  0.519999981       9.99999978E-03   51.5058060    
  0.529999971       9.99999978E-03   51.5136566    
  0.539999962       9.99999978E-03   51.5215950    
  0.550000012       9.99999978E-03   51.5296555    
  0.560000002       9.99999978E-03   51.5378723    
  0.569999993       9.99999978E-03   51.5462875    
  0.579999983       9.99999978E-03   51.5549545    
  0.589999974       9.99999978E-03   51.5639267    
  0.599999964       9.99999978E-03   51.5732613    
  0.610000014       9.99999978E-03   51.5830345    
  0.620000005       9.99999978E-03   51.5933228    
  0.629999995       9.99999978E-03   51.6042099    
  0.639999986       9.99999978E-03   51.6157990    
  0.649999976       9.99999978E-03   51.6282043    
  0.659999967       9.99999978E-03   51.6415405    
  0.669999957       9.99999978E-03   51.6559525    
  0.680000007       9.99999978E-03   51.6716003    
  0.689999998       9.99999978E-03   51.6886559    
  0.699999988       9.99999978E-03   51.7073250    
  0.709999979       9.99999978E-03   51.7278366    
  0.719999969       9.99999978E-03   51.7504539    
  0.729999959       9.99999978E-03   51.7754745    
  0.740000010       9.99999978E-03   51.8032455    
  0.750000000       9.99999978E-03   51.8341675    
  0.759999990       9.99999978E-03   51.8687057    
  0.769999981       9.99999978E-03   51.9074020    
  0.779999971       9.99999978E-03   51.9508972    
  0.789999962       9.99999978E-03   51.9999619    
  0.799999952       9.99999978E-03   52.0555038    
  0.810000002       9.99999978E-03   52.1186295    
  0.819999993       9.99999978E-03   52.1906776    
  0.829999983       9.99999978E-03   52.2733116    
  0.839999974       9.99999978E-03   52.3685989    
  0.849999964       9.99999978E-03   52.4791603    
  0.859999955       9.99999978E-03   52.6083527    
  0.870000005       9.99999978E-03   52.7605667    
  0.879999995       9.99999978E-03   52.9416428    
  0.889999986       9.99999978E-03   53.1595421    
  0.899999976       9.99999978E-03   53.4253922    
  0.909999967       9.99999978E-03   53.7552490    
  0.919999957       9.99999978E-03   54.1731491    
  0.930000007       9.99999978E-03   54.7167435    
  0.939999998       9.99999978E-03   55.4484024    
  0.949999988       9.99999978E-03   56.4789200    
  0.959999979       9.99999978E-03   58.0229950    
  0.969999969       9.99999978E-03   60.5432053    
  0.979999959       9.99999978E-03   65.1665649    
  0.989999950       9.99999978E-03   75.0246124    
   1.00000000       9.99999978E-03   100.000000    
   0.00000000       1.99999996E-02   75.0000000    
   9.99999978E-03   1.99999996E-02   67.5015106    
   1.99999996E-02   1.99999996E-02   62.6203384    
   2.99999993E-02   1.99999996E-02   59.5982513    
   3.99999991E-02   1.99999996E-02   57.6770058    
   4.99999970E-02   1.99999996E-02   56.3995934    
   5.99999987E-02   1.99999996E-02   55.5116959    
   7.00000003E-02   1.99999996E-02   54.8705940    
   7.99999982E-02   1.99999996E-02   54.3932114    
   8.99999961E-02   1.99999996E-02   54.0290070    
   9.99999940E-02   1.99999996E-02   53.7458649    
  0.109999999       1.99999996E-02   53.5225449    
  0.119999997       1.99999996E-02   53.3445129    
  0.129999995       1.99999996E-02   53.2014961    
  0.140000001       1.99999996E-02   53.0860443    
  0.149999991       1.99999996E-02   52.9926338    
  0.159999996       1.99999996E-02   52.9170685    
  0.170000002       1.99999996E-02   52.8561211    
  0.179999992       1.99999996E-02   52.8072586    
  0.189999998       1.99999996E-02   52.7684708    
  0.199999988       1.99999996E-02   52.7381325    
  0.209999993       1.99999996E-02   52.7149200    
  0.219999999       1.99999996E-02   52.6977539    
  0.229999989       1.99999996E-02   52.6857300    
  0.239999995       1.99999996E-02   52.6780891    
  0.250000000       1.99999996E-02   52.6741943    
  0.259999990       1.99999996E-02   52.6735077    
  0.269999981       1.99999996E-02   52.6755600    
  0.280000001       1.99999996E-02   52.6799622    
  0.289999992       1.99999996E-02   52.6863708    
  0.299999982       1.99999996E-02   52.6944809    
  0.310000002       1.99999996E-02   52.7040367    
  0.319999993       1.99999996E-02   52.7148132    
  0.329999983       1.99999996E-02   52.7266159    
  0.340000004       1.99999996E-02   52.7392731    
  0.349999994       1.99999996E-02   52.7526283    
  0.359999985       1.99999996E-02   52.7665558    
  0.370000005       1.99999996E-02   52.7809410    
  0.379999995       1.99999996E-02   52.7956848    
  0.389999986       1.99999996E-02   52.8107033    
  0.399999976       1.99999996E-02   52.8259201    
  0.409999996       1.99999996E-02   52.8412781    
  0.419999987       1.99999996E-02   52.8567238    
  0.429999977       1.99999996E-02   52.8722191    
  0.439999998       1.99999996E-02   52.8877296    
  0.449999988       1.99999996E-02   52.9032364    
  0.459999979       1.99999996E-02   52.9187241    
  0.469999999       1.99999996E-02   52.9341888    
  0.479999989       1.99999996E-02   52.9496346    
  0.489999980       1.99999996E-02   52.9650688    
  0.500000000       1.99999996E-02   52.9805145    
  0.509999990       1.99999996E-02   52.9959946    
  0.519999981       1.99999996E-02   53.0115509    
  0.529999971       1.99999996E-02   53.0272255    
  0.539999962       1.99999996E-02   53.0430717    
  0.550000012       1.99999996E-02   53.0591545    
  0.560000002       1.99999996E-02   53.0755463    
  0.569999993       1.99999996E-02   53.0923309    
  0.579999983       1.99999996E-02   53.1096077    
  0.589999974       1.99999996E-02   53.1274872    
  0.599999964       1.99999996E-02   53.1460876    
  0.610000014       1.99999996E-02   53.1655540    
  0.620000005       1.99999996E-02   53.1860390    
  0.629999995       1.99999996E-02   53.2077179    
  0.639999986       1.99999996E-02   53.2307892    
  0.649999976       1.99999996E-02   53.2554703    
  0.659999967       1.99999996E-02   53.2820053    
  0.669999957       1.99999996E-02   53.3106766    
  0.680000007       1.99999996E-02   53.3417892    
  0.689999998       1.99999996E-02   53.3757019    
  0.699999988       1.99999996E-02   53.4128113    
  0.709999979       1.99999996E-02   53.4535751    
  0.719999969       1.99999996E-02   53.4985085    
  0.729999959       1.99999996E-02   53.5482063    
  0.740000010       1.99999996E-02   53.6033478    
  0.750000000       1.99999996E-02   53.6647263    
  0.759999990       1.99999996E-02   53.7332535    
  0.769999981       1.99999996E-02   53.8100014    
  0.779999971       1.99999996E-02   53.8962326    
  0.789999962       1.99999996E-02   53.9934464    
  0.799999952       1.99999996E-02   54.1034317    
  0.810000002       1.99999996E-02   54.2283325    
  0.819999993       1.99999996E-02   54.3707733    
  0.829999983       1.99999996E-02   54.5339737    
  0.839999974       1.99999996E-02   54.7219315    
  0.849999964       1.99999996E-02   54.9396935    
  0.859999955       1.99999996E-02   55.1936913    
  0.870000005       1.99999996E-02   55.4922714    
  0.879999995       1.99999996E-02   55.8464622    
  0.889999986       1.99999996E-02   56.2711296    
  0.899999976       1.99999996E-02   56.7867775    
  0.909999967       1.99999996E-02   57.4224586    
  0.919999957       1.99999996E-02   58.2206078    
  0.930000007       1.99999996E-02   59.2454224    
  0.939999998       1.99999996E-02   60.5979462    
  0.949999988       1.99999996E-02   62.4442902    
  0.959999979       1.99999996E-02   65.0698624    
  0.969999969       1.99999996E-02   68.9832611    
  0.979999959       1.99999996E-02   75.0984497    
  0.989999950       1.99999996E-02   84.9318848    
   1.00000000       1.99999996E-02   100.000000    
   0.00000000       2.99999993E-02   75.0000000    
   9.99999978E-03   2.99999993E-02   69.8556137    
   1.99999996E-02   2.99999993E-02   65.7627716    
   2.99999993E-02   2.99999993E-02   62.7707710    
   3.99999991E-02   2.99999993E-02   60.6276665    
   4.99999970E-02   2.99999993E-02   59.0815125    
   5.99999987E-02   2.99999993E-02   57.9460678    
   7.00000003E-02   2.99999993E-02   57.0951958    
   7.99999982E-02   2.99999993E-02   56.4452591    
   8.99999961E-02   2.99999993E-02   55.9404831    
   9.99999940E-02   2.99999993E-02   55.5430145    
  0.109999999       2.99999993E-02   55.2266006    
  0.119999997       2.99999993E-02   54.9726105    
  0.129999995       2.99999993E-02   54.7675247    
  0.140000001       2.99999993E-02   54.6013412    
  0.149999991       2.99999993E-02   54.4665146    
  0.159999996       2.99999993E-02   54.3572426    
  0.170000002       2.99999993E-02   54.2690125    
  0.179999992       2.99999993E-02   54.1982536    
  0.189999998       2.99999993E-02   54.1421089    
  0.199999988       2.99999993E-02   54.0982590    
  0.209999993       2.99999993E-02   54.0648079    
  0.219999999       2.99999993E-02   54.0401917    
  0.229999989       2.99999993E-02   54.0231018    
  0.239999995       2.99999993E-02   54.0124359    
  0.250000000       2.99999993E-02   54.0072746    
  0.259999990       2.99999993E-02   54.0068245    
  0.269999981       2.99999993E-02   54.0104065    
  0.280000001       2.99999993E-02   54.0174408    
  0.289999992       2.99999993E-02   54.0274200    
  0.299999982       2.99999993E-02   54.0399094    
  0.310000002       2.99999993E-02   54.0545273    
  0.319999993       2.99999993E-02   54.0709419    
  0.329999983       2.99999993E-02   54.0888596    
  0.340000004       2.99999993E-02   54.1080322    
  0.349999994       2.99999993E-02   54.1282310    
  0.359999985       2.99999993E-02   54.1492653    
  0.370000005       2.99999993E-02   54.1709671    
  0.379999995       2.99999993E-02   54.1931877    
  0.389999986       2.99999993E-02   54.2158051    
  0.399999976       2.99999993E-02   54.2387085    
  0.409999996       2.99999993E-02   54.2618065    
  0.419999987       2.99999993E-02   54.2850266    
  0.429999977       2.99999993E-02   54.3083076    
  0.439999998       2.99999993E-02   54.3316040    
  0.449999988       2.99999993E-02   54.3548813    
  0.459999979       2.99999993E-02   54.3781204    
  0.469999999       2.99999993E-02   54.4013138    
  0.479999989       2.99999993E-02   54.4244652    
  0.489999980       2.99999993E-02   54.4475937    
  0.500000000       2.99999993E-02   54.4707260    
  0.509999990       2.99999993E-02   54.4939041    
  0.519999981       2.99999993E-02   54.5171814    
  0.529999971       2.99999993E-02   54.5406227    
  0.539999962       2.99999993E-02   54.5643120    
  0.550000012       2.99999993E-02   54.5883408    
  0.560000002       2.99999993E-02   54.6128235    
  0.569999993       2.99999993E-02   54.6378784    
  0.579999983       2.99999993E-02   54.6636581    
  0.589999974       2.99999993E-02   54.6903229    
  0.599999964       2.99999993E-02   54.7180519    
  0.610000014       2.99999993E-02   54.7470551    
  0.620000005       2.99999993E-02   54.7775650    
  0.629999995       2.99999993E-02   54.8098412    
  0.639999986       2.99999993E-02   54.8441734    
  0.649999976       2.99999993E-02   54.8808861    
  0.659999967       2.99999993E-02   54.9203415    
  0.669999957       2.99999993E-02   54.9629517    
  0.680000007       2.99999993E-02   55.0091820    
  0.689999998       2.99999993E-02   55.0595512    
  0.699999988       2.99999993E-02   55.1146469    
  0.709999979       2.99999993E-02   55.1751442    
  0.719999969       2.99999993E-02   55.2418022    
  0.729999959       2.99999993E-02   55.3154907    
  0.740000010       2.99999993E-02   55.3972168    
  0.750000000       2.99999993E-02   55.4881325    
  0.759999990       2.99999993E-02   55.5895767    
  0.769999981       2.99999993E-02   55.7031174    
  0.779999971       2.99999993E-02   55.8305893    
  0.789999962       2.99999993E-02   55.9741669    
  0.799999952       2.99999993E-02   56.1364365    
  0.810000002       2.99999993E-02   56.3204956    
  0.819999993       2.99999993E-02   56.5301094    
  0.829999983       2.99999993E-02   56.7698708    
  0.839999974       2.99999993E-02   57.0454636    
  0.849999964       2.99999993E-02   57.3639908    
  0.859999955       2.99999993E-02   57.7344437    
  0.870000005       2.99999993E-02   58.1683655    
  0.879999995       2.99999993E-02   58.6808090    
  0.889999986       2.99999993E-02   59.2917404    
  0.899999976       2.99999993E-02   60.0281334    
  0.909999967       2.99999993E-02   60.9272003    
  0.919999957       2.99999993E-02   62.0414047    
  0.930000007       2.99999993E-02   63.4463959    
  0.939999998       2.99999993E-02   65.2536697    
  0.949999988       2.99999993E-02   67.6304321    
  0.959999979       2.99999993E-02   70.8289032    
  0.969999969       2.99999993E-02   75.2215195    
  0.979999959       2.99999993E-02   81.3120956    
  0.989999950       2.99999993E-02   89.6044693    
   1.00000000       2.99999993E-02   100.000000    
   0.00000000       3.99999991E-02   75.0000000    
   9.99999978E-03   3.99999991E-02   71.1581726    
   1.99999996E-02   3.99999991E-02   67.8043671    
   2.99999993E-02   3.99999991E-02   65.0943985    
   3.99999991E-02   3.99999991E-02   62.9813766    
   4.99999970E-02   3.99999991E-02   61.3527298    
   5.99999987E-02   3.99999991E-02   60.0958748    
   7.00000003E-02   3.99999991E-02   59.1188583    
   7.99999982E-02   3.99999991E-02   58.3521461    
   8.99999961E-02   3.99999991E-02   57.7446518    
   9.99999940E-02   3.99999991E-02   57.2591171    
  0.109999999       3.99999991E-02   56.8682365    
  0.119999997       3.99999991E-02   56.5517998    
  0.129999995       3.99999991E-02   56.2946548    
  0.140000001       3.99999991E-02   56.0852890    
  0.149999991       3.99999991E-02   55.9148369    
  0.159999996       3.99999991E-02   55.7763748    
  0.170000002       3.99999991E-02   55.6644363    
  0.179999992       3.99999991E-02   55.5746384    
  0.189999998       3.99999991E-02   55.5034523    
  0.199999988       3.99999991E-02   55.4479866    
  0.209999993       3.99999991E-02   55.4058609    
  0.219999999       3.99999991E-02   55.3750992    
  0.229999989       3.99999991E-02   55.3540421    
  0.239999995       3.99999991E-02   55.3412857    
  0.250000000       3.99999991E-02   55.3356476    
  0.259999990       3.99999991E-02   55.3361130    
  0.269999981       3.99999991E-02   55.3418045    
  0.280000001       3.99999991E-02   55.3519745    
  0.289999992       3.99999991E-02   55.3659668    
  0.299999982       3.99999991E-02   55.3832169    
  0.310000002       3.99999991E-02   55.4032288    
  0.319999993       3.99999991E-02   55.4255676    
  0.329999983       3.99999991E-02   55.4498558    
  0.340000004       3.99999991E-02   55.4757652    
  0.349999994       3.99999991E-02   55.5029984    
  0.359999985       3.99999991E-02   55.5313072    
  0.370000005       3.99999991E-02   55.5604706    
  0.379999995       3.99999991E-02   55.5902977    
  0.389999986       3.99999991E-02   55.6206207    
  0.399999976       3.99999991E-02   55.6512985    
  0.409999996       3.99999991E-02   55.6822128    
  0.419999987       3.99999991E-02   55.7132683    
  0.429999977       3.99999991E-02   55.7443848    
  0.439999998       3.99999991E-02   55.7754974    
  0.449999988       3.99999991E-02   55.8065643    
  0.459999979       3.99999991E-02   55.8375626    
  0.469999999       3.99999991E-02   55.8684807    
  0.479999989       3.99999991E-02   55.8993225    
  0.489999980       3.99999991E-02   55.9301147    
  0.500000000       3.99999991E-02   55.9608955    
  0.509999990       3.99999991E-02   55.9917145    
  0.519999981       3.99999991E-02   56.0226440    
  0.529999971       3.99999991E-02   56.0537758    
  0.539999962       3.99999991E-02   56.0852127    
  0.550000012       3.99999991E-02   56.1170807    
  0.560000002       3.99999991E-02   56.1495247    
  0.569999993       3.99999991E-02   56.1827087    
  0.579999983       3.99999991E-02   56.2168274    
  0.589999974       3.99999991E-02   56.2520943    
  0.599999964       3.99999991E-02   56.2887459    
  0.610000014       3.99999991E-02   56.3270569    
  0.620000005       3.99999991E-02   56.3673325    
  0.629999995       3.99999991E-02   56.4099121    
  0.639999986       3.99999991E-02   56.4551773    
  0.649999976       3.99999991E-02   56.5035553    
  0.659999967       3.99999991E-02   56.5555229    
  0.669999957       3.99999991E-02   56.6116142    
  0.680000007       3.99999991E-02   56.6724396    
  0.689999998       3.99999991E-02   56.7386742    
  0.699999988       3.99999991E-02   56.8110886    
  0.709999979       3.99999991E-02   56.8905563    
  0.719999969       3.99999991E-02   56.9780655    
  0.729999959       3.99999991E-02   57.0747452    
  0.740000010       3.99999991E-02   57.1819000    
  0.750000000       3.99999991E-02   57.3010101    
  0.759999990       3.99999991E-02   57.4338112    
  0.769999981       3.99999991E-02   57.5823059    
  0.779999971       3.99999991E-02   57.7488480    
  0.789999962       3.99999991E-02   57.9362030    
  0.799999952       3.99999991E-02   58.1476517    
  0.810000002       3.99999991E-02   58.3871078    
  0.819999993       3.99999991E-02   58.6592941    
  0.829999983       3.99999991E-02   58.9699402    
  0.839999974       3.99999991E-02   59.3260651    
  0.849999964       3.99999991E-02   59.7363663    
  0.859999955       3.99999991E-02   60.2117310    
  0.870000005       3.99999991E-02   60.7659416    
  0.879999995       3.99999991E-02   61.4166718    
  0.889999986       3.99999991E-02   62.1868858    
  0.899999976       3.99999991E-02   63.1068153    
  0.909999967       3.99999991E-02   64.2168121    
  0.919999957       3.99999991E-02   65.5714188    
  0.930000007       3.99999991E-02   67.2450867    
  0.939999998       3.99999991E-02   69.3399048    
  0.949999988       3.99999991E-02   71.9948730    
  0.959999979       3.99999991E-02   75.3938141    
  0.969999969       3.99999991E-02   79.7618103    
  0.979999959       3.99999991E-02   85.3239441    
  0.989999950       3.99999991E-02   92.1739044    
   1.00000000       3.99999991E-02   100.000000    
   0.00000000       4.99999970E-02   75.0000000    
   9.99999978E-03   4.99999970E-02   71.9727020    
   1.99999996E-02   4.99999970E-02   69.2021255    
   2.99999993E-02   4.99999970E-02   66.8210678    
   3.99999991E-02   4.99999970E-02   64.8507156    
   4.99999970E-02   4.99999970E-02   63.2521553    
   5.99999987E-02   4.99999970E-02   61.9658394    
   7.00000003E-02   4.99999970E-02   60.9322243    
   7.99999982E-02   4.99999970E-02   60.0998116    
   8.99999961E-02   4.99999970E-02   59.4268646    
   9.99999940E-02   4.99999970E-02   58.8805695    
  0.109999999       4.99999970E-02   58.4354324    
  0.119999997       4.99999970E-02   58.0717010    
  0.129999995       4.99999970E-02   57.7740097    
  0.140000001       4.99999970E-02   57.5303268    
  0.149999991       4.99999970E-02   57.3311729    
  0.159999996       4.99999970E-02   57.1689911    
  0.170000002       4.99999970E-02   57.0377121    
  0.179999992       4.99999970E-02   56.9324150    
  0.189999998       4.99999970E-02   56.8490753    
  0.199999988       4.99999970E-02   56.7843781    
  0.209999993       4.99999970E-02   56.7355576    
  0.219999999       4.99999970E-02   56.7003098    
  0.229999989       4.99999970E-02   56.6766815    
  0.239999995       4.99999970E-02   56.6630249    
  0.250000000       4.99999970E-02   56.6579247    
  0.259999990       4.99999970E-02   56.6601753    
  0.269999981       4.99999970E-02   56.6687317    
  0.280000001       4.99999970E-02   56.6826897    
  0.289999992       4.99999970E-02   56.7012634    
  0.299999982       4.99999970E-02   56.7237701    
  0.310000002       4.99999970E-02   56.7496033    
  0.319999993       4.99999970E-02   56.7782440    
  0.329999983       4.99999970E-02   56.8092346    
  0.340000004       4.99999970E-02   56.8421707    
  0.349999994       4.99999970E-02   56.8766937    
  0.359999985       4.99999970E-02   56.9124985    
  0.370000005       4.99999970E-02   56.9493141    
  0.379999995       4.99999970E-02   56.9869080    
  0.389999986       4.99999970E-02   57.0250778    
  0.399999976       4.99999970E-02   57.0636520    
  0.409999996       4.99999970E-02   57.1024857    
  0.419999987       4.99999970E-02   57.1414528    
  0.429999977       4.99999970E-02   57.1804619    
  0.439999998       4.99999970E-02   57.2194366    
  0.449999988       4.99999970E-02   57.2583237    
  0.459999979       4.99999970E-02   57.2970886    
  0.469999999       4.99999970E-02   57.3357239    
  0.479999989       4.99999970E-02   57.3742371    
  0.489999980       4.99999970E-02   57.4126549    
  0.500000000       4.99999970E-02   57.4510269    
  0.509999990       4.99999970E-02   57.4894180    
  0.519999981       4.99999970E-02   57.5279121    
  0.529999971       4.99999970E-02   57.5666237    
  0.539999962       4.99999970E-02   57.6056824    
  0.550000012       4.99999970E-02   57.6452446    
  0.560000002       4.99999970E-02   57.6854858    
  0.569999993       4.99999970E-02   57.7266121    
  0.579999983       4.99999970E-02   57.7688560    
  0.589999974       4.99999970E-02   57.8124809    
  0.599999964       4.99999970E-02   57.8577843    
  0.610000014       4.99999970E-02   57.9050980    
  0.620000005       4.99999970E-02   57.9547997    
  0.629999995       4.99999970E-02   58.0073013    
  0.639999986       4.99999970E-02   58.0630760    
  0.649999976       4.99999970E-02   58.1226387    
  0.659999967       4.99999970E-02   58.1865768    
  0.669999957       4.99999970E-02   58.2555466    
  0.680000007       4.99999970E-02   58.3302841    
  0.689999998       4.99999970E-02   58.4116173    